 Q-Chem 5.2, Q-Chem, Inc., Pleasanton, CA (2019)
 Q-Chem 5.2.2 for Intel X86 EM64T Linux

User input:
--------------------------------------------------------------
$molecule
0 1
O
H  1 r1
H  1 r1 2 a1

r1 = 0.96
a1 = 104.01
$end

$rem
JOBTYPE       freq
BASIS         6-31G*   Just a small basis set
METHOD        mp2      MP2
$end
--------------------------------------------------------------

   11     -76.0103787320      3.94e-09  Convergence criterion met
 Total energy in the final basis set =      -76.0103787320
        MP2         total energy =                   -76.19670462 au
    8     -76.0103774606      5.03e-10  Convergence criterion met
 Total energy in the final basis set =      -76.0103774606
        MP2         total energy =                   -76.19670335 au
    8     -76.0103787010      5.90e-09  Convergence criterion met
 Total energy in the final basis set =      -76.0103787010
        MP2         total energy =                   -76.19670464 au
    8     -76.0103411729      5.59e-09  Convergence criterion met
 Total energy in the final basis set =      -76.0103411729
        MP2         total energy =                   -76.19672271 au
    8     -76.0104144561      3.49e-09  Convergence criterion met
 Total energy in the final basis set =      -76.0104144561
        MP2         total energy =                   -76.19668481 au
    8     -76.0103953050      2.02e-09  Convergence criterion met
 Total energy in the final basis set =      -76.0103953050
        MP2         total energy =                   -76.19669021 au
    8     -76.0103607655      3.55e-09  Convergence criterion met
 Total energy in the final basis set =      -76.0103607655
        MP2         total energy =                   -76.19671765 au
    8     -76.0103787186      4.41e-09  Convergence criterion met
 Total energy in the final basis set =      -76.0103787186
        MP2         total energy =                   -76.19670463 au
    8     -76.0103966285      4.75e-09  Convergence criterion met
 Total energy in the final basis set =      -76.0103966285
        MP2         total energy =                   -76.19669474 au
    8     -76.0103599869      3.34e-09  Convergence criterion met
 Total energy in the final basis set =      -76.0103599869
        MP2         total energy =                   -76.19671369 au

                    Orbital Energies (a.u.)
 --------------------------------------------------------------

 Alpha MOs
 -- Occupied --
-20.5613  -1.3407  -0.7042  -0.5716  -0.4979

          Ground-State Mulliken Net Atomic Charges

     Atom                 Charge (a.u.)
  ----------------------------------------
      1 O                    -0.830273
      2 H                     0.415102
      3 H                     0.415171
  ----------------------------------------
  Sum of atomic charges =     0.000000

                    Cartesian Multipole Moments
 -----------------------------------------------------------------
    Charge (ESU x 10^10)
                 0.0000
    Dipole Moment (Debye)
         X       0.0005      Y      -0.0000      Z      -2.1949
       Tot       2.1949
    Quadrupole Moments (Debye-Ang)
        XX      -4.2647     XY      -0.0000     YY      -7.3263
        XZ       0.0016     YZ       0.0000     ZZ      -6.0581

             Standard Nuclear Orientation (Angstroms)
    I     Atom           X                Y                Z
 ----------------------------------------------------------------
    1      O       0.0000000000     0.0000000000     0.1181937996
    2      H      -0.7565418981    -0.0000000000    -0.4727751983
    3      H       0.7565418981    -0.0000000000    -0.4727751983
 ----------------------------------------------------------------

 Frequency:      1717.05                3892.49                4034.40
 Force Cnst:      1.8806                 9.3308                10.3701
 Red. Mass:       1.0826                 1.0452                 1.0814
 IR Intens:       90.642                  6.518                 41.163

 STANDARD THERMODYNAMIC QUANTITIES AT   298.15 K  AND     1.00 ATM

   This Molecule has  0 Imaginary Frequencies
   Zero point vibrational energy:       13.787 kcal/mol

   Atom    1 Element O  Has Mass   15.99491
   Atom    2 Element H  Has Mass    1.00783
   Atom    3 Element H  Has Mass    1.00783
   Molecular Mass:    18.010570 amu
   Principal axes and moments of inertia in amu*Bohr^2:
                             1           2           3
    Eigenvalues --        2.23254     4.11985     6.35238
          X               1.00000    -0.00000    -0.00000
          Y               0.00000     0.00000     1.00000
          Z               0.00000     1.00000    -0.00000
   Rotational Symmetry Number is   2
   The Molecule is an Asymmetric Top
   Translational Enthalpy:        0.889 kcal/mol
   Rotational Enthalpy:           0.889 kcal/mol
   Vibrational Enthalpy:         13.788 kcal/mol
   gas constant (RT):             0.592 kcal/mol
   Translational Entropy:        34.608  cal/mol.K
   Rotational Entropy:           10.467  cal/mol.K
   Vibrational Entropy:           0.005  cal/mol.K

   Total Enthalpy:               16.158 kcal/mol
   Total Entropy:                45.080  cal/mol.K

 Total job time:  8.39s(wall), 31.72s(cpu)
        *  Thank you very much for using Q-Chem.  Have a nice day.  *
